file 48079145 1559238675                                        
version 2
run General-0-20190530-19:51:10-13308
attr configname General
attr datetime 20190530-19:51:10
attr experiment General
attr inifile omnetpp.ini
attr iterationvars ""
attr iterationvarsf ""
attr measurement ""
attr network SourceSink
attr processid 13308
attr repetition 0
attr replication #0
attr resultdir results
attr runnumber 0
attr seedset 0

vector 0 SourceSink.sink arrivals ETV
attr interpolationmode none
0	442 962736 2 65536 0 32446.686718631198 32768 1 1 32768 32768
0	963178 995008 65538 131072 32446.8717662005 65243.015513100943 32768 1 1 32768 32768
0	1958186 1012145 131074 196608 65243.296525746626 97693.929820660814 32768 1 1 32768 32768
0	2970331 1042735 196610 262144 97695.397622927488 130325.203774532097 32768 1 1 32768 32768
0	4013066 1044967 262146 327680 130325.698248505563 163164.286794734102 32768 1 1 32768 32768
0	5058033 1044936 327682 393216 163164.898312044393 196329.431584005332 32768 1 1 32768 32768
0	6102969 1044943 393218 458752 196331.427684733888 229250.644241122738 32768 1 1 32768 32768
0	7147912 1044920 458754 524288 229251.89625598162 262080.940046290114 32768 1 1 32768 32768
0	8192832 1044953 524290 589824 262081.06511818325 295123.427049940348 32768 1 1 32768 32768
0	9237785 1044842 589826 655360 295124.252582447932 327709.045839733632 32768 1 1 32768 32768
0	10282627 1044858 655362 720896 327709.814650874041 360643.808476679422 32768 1 1 32768 32768
0	11327485 1044968 720898 786432 360645.719154889423 393385.365262627439 32768 1 1 32768 32768
0	12372453 1044991 786434 851968 393385.68009268599 426413.932693109309 32768 1 1 32768 32768
0	13417444 1044916 851970 917504 426416.328855749242 459074.526247810595 32768 1 1 32768 32768
0	14462360 1044948 917506 983040 459076.378109673162 491606.509856903013 32768 1 1 32768 32768
0	15507308 1069210 983042 1048576 491606.749074267649 524003.71711345576 32768 1 1 32768 32768
0	16576518 1077620 1048578 1114112 524006.921843606229 556847.996493284355 32768 1 1 32768 32768
0	17654138 1077673 1114114 1179648 556848.512902713781 589443.757213645353 32768 1 1 32768 32768
0	18731811 1077592 1179650 1245184 589445.382202402104 622127.564014592371 32768 1 1 32768 32768
0	19809403 1077720 1245186 1310720 622130.187971619671 654853.017842655805 32768 1 1 32768 32768
0	20887123 1077680 1310722 1376256 654856.329181601427 687661.395460308425 32768 1 1 32768 32768
0	21964803 1077730 1376258 1441792 687661.559808851867 720319.403705185512 32768 1 1 32768 32768
0	23042533 1077725 1441794 1507328 720320.439656058469 753089.807824846681 32768 1 1 32768 32768
0	24120258 1077755 1507330 1572864 753090.34573239145 786099.588517745242 32768 1 1 32768 32768
0	25198013 1077746 1572866 1638400 786102.561490618247 819052.856792588153 32768 1 1 32768 32768
0	26275759 1077695 1638402 1703936 819053.051206568179 851789.880289023979 32768 1 1 32768 32768
0	27353454 1077696 1703938 1769472 851792.788346607243 884643.594454494917 32768 1 1 32768 32768
0	28431150 1077625 1769474 1835008 884644.074205162927 917531.466840195392 32768 1 1 32768 32768
0	29508775 1077794 1835010 1900544 917532.411776047137 950254.815547545483 32768 1 1 32768 32768
0	30586569 1077725 1900546 1966080 950256.745637177273 983280.636602053958 32768 1 1 32768 32768
0	31664294 1093887 1966082 2031616 983281.203600005743 1016216.425295810428 32768 1 1 32768 32768
0	32758181 1110461 2031618 2097152 1016218.045944054536 1049178.850799325474 32768 1 1 32768 32768
0	33868642 1110462 2097154 2162688 1049179.118228852054 1081782.528862011746 32768 1 1 32768 32768
0	34979104 1110389 2162690 2228224 1081783.542401189608 1114340.928912744827 32768 1 1 32768 32768
0	36089493 1110351 2228226 2293760 1114341.198833315529 1147138.598930111952 32768 1 1 32768 32768
0	37199844 1110542 2293762 2359296 1147139.185506069912 1180134.696247272583 32768 1 1 32768 32768
0	38310386 1110479 2359298 2424832 1180136.874777201098 1213197.033509670864 32768 1 1 32768 32768
0	39420865 1110473 2424834 2490368 1213199.298152653051 1246073.308941302514 32768 1 1 32768 32768
0	40531338 1110502 2490370 2555904 1246074.039512058941 1279170.638251728777 32768 1 1 32768 32768
0	41641840 1110514 2555906 2621440 1279171.291540056981 1312038.577989400863 32768 1 1 32768 32768
0	42752354 1110444 2621442 2686976 1312039.654290680154 1344861.644430866736 32768 1 1 32768 32768
0	43862798 1110497 2686978 2752512 1344864.35460501574 1377825.164642074259 32768 1 1 32768 32768
0	44973295 1110508 2752514 2818048 1377825.54930572655 1410729.997663877341 32768 1 1 32768 32768
0	46083803 1110331 2818050 2883584 1410732.208094236559 1443620.50742705355 32768 1 1 32768 32768
0	47194134 885009 2883586 2935808 1443620.708029401222 1469666.109481724017 26112 1 1 26112 26112

